LAMMPS Description

290 atoms
144 bonds
0 angles
0 dihedrals
0 impropers

2 atom types
1 bond types
0 angle types
0 dihedral types
0 improper types

-40 40 xlo xhi
-40 40 ylo yhi
-40 40 zlo zhi

Masses

1 1.0
2 1.0

Atoms

1 1 1 14.97 0 0 0 
2 1 1 14.97 1 0 0 
3 1 1 14.97 1 -1 0 
4 1 1 14.97 1 -1 -1 
5 1 1 14.97 1 -1 -2 
6 1 1 14.97 1 -1 -3 
7 1 1 14.97 1 -1 -4 
8 1 1 14.97 1 -2 -4 
9 1 1 14.97 0 -2 -4 
10 1 1 14.97 0 -2 -3 
11 1 1 14.97 0 -1 -3 
12 1 1 14.97 0 -1 -4 
13 1 1 14.97 0 0 -4 
14 1 1 14.97 -1 0 -4 
15 1 1 14.97 -1 0 -5 
16 1 1 14.97 -2 0 -5 
17 1 1 14.97 -2 -1 -5 
18 1 1 14.97 -2 -2 -5 
19 1 1 14.97 -3 -2 -5 
20 1 1 14.97 -3 -1 -5 
21 1 1 14.97 -3 -1 -4 
22 1 1 14.97 -3 0 -4 
23 1 1 14.97 -3 1 -4 
24 1 1 14.97 -2 1 -4 
25 1 1 14.97 -2 0 -4 
26 1 1 14.97 -2 -1 -4 
27 1 1 14.97 -1 -1 -4 
28 1 1 14.97 -1 -1 -5 
29 1 1 14.97 -1 -1 -6 
30 1 1 14.97 0 -1 -6 
31 1 1 14.97 1 -1 -6 
32 1 1 14.97 1 -1 -7 
33 1 1 14.97 1 -1 -8 
34 1 1 14.97 0 -1 -8 
35 1 1 14.97 0 -2 -8 
36 1 1 14.97 0 -3 -8 
37 1 1 14.97 0 -3 -7 
38 1 1 14.97 0 -3 -6 
39 1 1 14.97 0 -4 -6 
40 1 1 14.97 0 -5 -6 
41 1 1 14.97 0 -5 -7 
42 1 1 14.97 1 -5 -7 
43 1 1 14.97 1 -5 -6 
44 1 1 14.97 2 -5 -6 
45 1 1 14.97 2 -5 -5 
46 1 1 14.97 3 -5 -5 
47 1 1 14.97 3 -4 -5 
48 1 1 14.97 2 -4 -5 
49 1 1 14.97 2 -4 -4 
50 1 1 14.97 2 -4 -3 
51 1 1 14.97 2 -4 -2 
52 1 1 14.97 2 -3 -2 
53 1 1 14.97 3 -3 -2 
54 1 1 14.97 4 -3 -2 
55 1 1 14.97 4 -3 -3 
56 1 1 14.97 5 -3 -3 
57 1 1 14.97 5 -3 -4 
58 1 1 14.97 4 -3 -4 
59 1 1 14.97 4 -2 -4 
60 1 1 14.97 5 -2 -4 
61 1 1 14.97 6 -2 -4 
62 1 1 14.97 7 -2 -4 
63 1 1 14.97 7 -2 -3 
64 1 1 14.97 7 -2 -2 
65 1 1 14.97 7 -1 -2 
66 1 1 14.97 7 -1 -3 
67 1 1 14.97 6 -1 -3 
68 1 1 14.97 6 -1 -2 
69 1 1 14.97 6 -2 -2 
70 1 1 14.97 6 -3 -2 
71 1 1 14.97 6 -3 -3 
72 1 1 14.97 6 -3 -4 
73 1 1 14.97 6 -4 -4 
74 1 1 14.97 6 -4 -5 
75 1 1 14.97 5 -4 -5 
76 1 1 14.97 5 -4 -4 
77 1 1 14.97 5 -5 -4 
78 1 1 14.97 5 -5 -3 
79 1 1 14.97 5 -5 -2 
80 1 1 14.97 4 -5 -2 
81 1 1 14.97 4 -5 -3 
82 1 1 14.97 4 -5 -4 
83 1 1 14.97 4 -6 -4 
84 1 1 14.97 3 -6 -4 
85 1 1 14.97 3 -6 -5 
86 1 1 14.97 4 -6 -5 
87 1 1 14.97 4 -6 -6 
88 1 1 14.97 5 -6 -6 
89 1 1 14.97 5 -7 -6 
90 1 1 14.97 6 -7 -6 
91 1 1 14.97 6 -7 -7 
92 1 1 14.97 6 -6 -7 
93 1 1 14.97 6 -6 -8 
94 1 1 14.97 7 -6 -8 
95 1 1 14.97 7 -7 -8 
96 1 1 14.97 7 -7 -7 
97 1 1 14.97 7 -6 -7 
98 1 1 14.97 8 -6 -7 
99 1 1 14.97 9 -6 -7 
100 1 1 14.97 9 -6 -6 
101 1 1 14.97 9 -5 -6 
102 1 1 14.97 9 -5 -5 
103 1 1 14.97 9 -5 -4 
104 1 1 14.97 9 -6 -4 
105 1 1 14.97 10 -6 -4 
106 1 1 14.97 10 -5 -4 
107 1 1 14.97 10 -4 -4 
108 1 1 14.97 11 -4 -4 
109 1 1 14.97 11 -5 -4 
110 1 1 14.97 11 -5 -3 
111 1 1 14.97 10 -5 -3 
112 1 1 14.97 9 -5 -3 
113 1 1 14.97 9 -6 -3 
114 1 1 14.97 9 -7 -3 
115 1 1 14.97 8 -7 -3 
116 1 1 14.97 8 -6 -3 
117 1 1 14.97 8 -6 -2 
118 1 1 14.97 8 -6 -1 
119 1 1 14.97 7 -6 -1 
120 1 1 14.97 7 -6 -2 
121 1 1 14.97 7 -5 -2 
122 1 1 14.97 7 -4 -2 
123 1 1 14.97 6 -4 -2 
124 1 1 14.97 6 -5 -2 
125 1 1 14.97 6 -5 -1 
126 1 1 14.97 5 -5 -1 
127 1 1 14.97 4 -5 -1 
128 1 1 14.97 4 -5 0 
129 1 1 14.97 3 -5 0 
130 1 1 14.97 3 -4 0 
131 1 1 14.97 3 -4 -1 
132 1 1 14.97 4 -4 -1 
133 1 1 14.97 5 -4 -1 
134 1 1 14.97 5 -3 -1 
135 1 1 14.97 6 -3 -1 
136 1 1 14.97 7 -3 -1 
137 1 1 14.97 7 -4 -1 
138 1 1 14.97 8 -4 -1 
139 1 1 14.97 8 -4 -2 
140 1 1 14.97 8 -4 -3 
141 1 1 14.97 8 -5 -3 
142 1 1 14.97 8 -5 -2 
143 1 1 14.97 9 -5 -2 
144 1 1 14.97 9 -6 -2 
145 1 1 14.97 9 -7 -2 
146 2 2 -14.97 12 4 7 
147 3 2 -14.97 4 0 -6 
148 4 2 -14.97 0 5 1 
149 5 2 -14.97 -4 -1 8 
150 6 2 -14.97 6 8 -3 
151 7 2 -14.97 8 8 2 
152 8 2 -14.97 -12 -8 -5 
153 9 2 -14.97 -1 1 7 
154 10 2 -14.97 -9 -3 -2 
155 11 2 -14.97 7 7 -5 
156 12 2 -14.97 1 4 1 
157 13 2 -14.97 -1 1 3 
158 14 2 -14.97 8 1 -5 
159 15 2 -14.97 8 4 4 
160 16 2 -14.97 -10 5 3 
161 17 2 -14.97 -4 7 -8 
162 18 2 -14.97 -4 -6 -4 
163 19 2 -14.97 -12 -8 9 
164 20 2 -14.97 -5 -7 5 
165 21 2 -14.97 -2 2 4 
166 22 2 -14.97 -10 3 1 
167 23 2 -14.97 -10 -1 1 
168 24 2 -14.97 4 -8 3 
169 25 2 -14.97 -3 1 6 
170 26 2 -14.97 4 1 -2 
171 27 2 -14.97 4 6 -4 
172 28 2 -14.97 12 7 -5 
173 29 2 -14.97 -2 7 -1 
174 30 2 -14.97 2 -5 -3 
175 31 2 -14.97 4 -7 -1 
176 32 2 -14.97 -12 -8 0 
177 33 2 -14.97 -10 -7 5 
178 34 2 -14.97 5 -1 0 
179 35 2 -14.97 -11 -5 5 
180 36 2 -14.97 -3 -7 -3 
181 37 2 -14.97 -7 7 0 
182 38 2 -14.97 -3 1 -5 
183 39 2 -14.97 -10 -1 -1 
184 40 2 -14.97 2 0 -9 
185 41 2 -14.97 -4 1 3 
186 42 2 -14.97 -12 -3 1 
187 43 2 -14.97 -2 6 5 
188 44 2 -14.97 -11 5 2 
189 45 2 -14.97 -2 -2 5 
190 46 2 -14.97 -4 2 -1 
191 47 2 -14.97 6 -3 0 
192 48 2 -14.97 -8 -4 -8 
193 49 2 -14.97 -7 4 7 
194 50 2 -14.97 5 -8 9 
195 51 2 -14.97 -9 0 -8 
196 52 2 -14.97 -10 1 2 
197 53 2 -14.97 8 -8 -5 
198 54 2 -14.97 -6 -5 -6 
199 55 2 -14.97 9 8 3 
200 56 2 -14.97 9 -1 4 
201 57 2 -14.97 -5 -1 4 
202 58 2 -14.97 1 -6 -7 
203 59 2 -14.97 9 -5 3 
204 60 2 -14.97 11 3 5 
205 61 2 -14.97 -11 5 -5 
206 62 2 -14.97 2 6 -7 
207 63 2 -14.97 -8 -2 -7 
208 64 2 -14.97 -12 1 -9 
209 65 2 -14.97 10 4 -1 
210 66 2 -14.97 2 -1 6 
211 67 2 -14.97 0 7 -5 
212 68 2 -14.97 12 4 6 
213 69 2 -14.97 -1 -7 6 
214 70 2 -14.97 -1 5 -4 
215 71 2 -14.97 -12 -8 -2 
216 72 2 -14.97 1 7 8 
217 73 2 -14.97 9 -4 -1 
218 74 2 -14.97 -4 2 1 
219 75 2 -14.97 -12 2 8 
220 76 2 -14.97 -5 6 -5 
221 77 2 -14.97 3 6 -1 
222 78 2 -14.97 -4 -2 5 
223 79 2 -14.97 8 4 -2 
224 80 2 -14.97 -1 -7 -9 
225 81 2 -14.97 -11 1 -3 
226 82 2 -14.97 9 -5 9 
227 83 2 -14.97 0 1 1 
228 84 2 -14.97 -3 8 -9 
229 85 2 -14.97 4 7 -3 
230 86 2 -14.97 -10 -7 -4 
231 87 2 -14.97 -10 3 9 
232 88 2 -14.97 -11 8 9 
233 89 2 -14.97 -5 2 -1 
234 90 2 -14.97 5 4 -5 
235 91 2 -14.97 1 8 -1 
236 92 2 -14.97 3 1 -8 
237 93 2 -14.97 -12 -8 3 
238 94 2 -14.97 -4 6 7 
239 95 2 -14.97 3 1 9 
240 96 2 -14.97 1 -3 -9 
241 97 2 -14.97 -8 -6 2 
242 98 2 -14.97 -9 -1 -5 
243 99 2 -14.97 3 3 4 
244 100 2 -14.97 6 -7 -8 
245 101 2 -14.97 1 -4 -6 
246 102 2 -14.97 -5 2 -5 
247 103 2 -14.97 8 -1 1 
248 104 2 -14.97 10 -2 8 
249 105 2 -14.97 10 -8 8 
250 106 2 -14.97 12 1 -6 
251 107 2 -14.97 12 3 9 
252 108 2 -14.97 -8 7 -5 
253 109 2 -14.97 -12 4 3 
254 110 2 -14.97 6 4 4 
255 111 2 -14.97 -12 -4 -2 
256 112 2 -14.97 7 8 -2 
257 113 2 -14.97 1 7 0 
258 114 2 -14.97 12 -2 6 
259 115 2 -14.97 7 0 -7 
260 116 2 -14.97 -7 4 3 
261 117 2 -14.97 10 -6 -9 
262 118 2 -14.97 6 3 5 
263 119 2 -14.97 -12 5 1 
264 120 2 -14.97 9 5 -3 
265 121 2 -14.97 -4 1 -8 
266 122 2 -14.97 -11 7 9 
267 123 2 -14.97 6 -3 -9 
268 124 2 -14.97 -6 -4 -2 
269 125 2 -14.97 1 0 -9 
270 126 2 -14.97 -10 5 -6 
271 127 2 -14.97 8 4 0 
272 128 2 -14.97 -8 -5 -2 
273 129 2 -14.97 -7 -8 4 
274 130 2 -14.97 1 0 1 
275 131 2 -14.97 -7 -7 2 
276 132 2 -14.97 -2 0 -2 
277 133 2 -14.97 6 -4 -3 
278 134 2 -14.97 9 -1 -5 
279 135 2 -14.97 -2 0 -7 
280 136 2 -14.97 -7 0 -6 
281 137 2 -14.97 7 2 5 
282 138 2 -14.97 2 6 9 
283 139 2 -14.97 -1 -1 4 
284 140 2 -14.97 -9 6 8 
285 141 2 -14.97 -4 -1 -4 
286 142 2 -14.97 7 -2 3 
287 143 2 -14.97 -12 6 -6 
288 144 2 -14.97 -6 2 8 
289 145 2 -14.97 -4 2 7 
290 146 2 -14.97 -8 5 6 

Bonds

1 1 1 2
2 1 2 3
3 1 3 4
4 1 4 5
5 1 5 6
6 1 2 7
7 1 3 8
8 1 8 9
9 1 5 10
10 1 10 11
11 1 10 12
12 1 6 13
13 1 13 14
14 1 14 15
15 1 15 16
16 1 16 17
17 1 13 18
18 1 14 19
19 1 19 20
20 1 16 21
21 1 21 22
22 1 21 23
23 1 17 24
24 1 24 25
25 1 25 26
26 1 26 27
27 1 27 28
28 1 24 29
29 1 25 30
30 1 30 31
31 1 27 32
32 1 32 33
33 1 32 34
34 1 28 35
35 1 35 36
36 1 36 37
37 1 37 38
38 1 38 39
39 1 35 40
40 1 36 41
41 1 41 42
42 1 38 43
43 1 43 44
44 1 43 45
45 1 39 46
46 1 46 47
47 1 47 48
48 1 48 49
49 1 49 50
50 1 46 51
51 1 47 52
52 1 52 53
53 1 49 54
54 1 54 55
55 1 54 56
56 1 50 57
57 1 57 58
58 1 58 59
59 1 59 60
60 1 60 61
61 1 57 62
62 1 58 63
63 1 63 64
64 1 60 65
65 1 65 66
66 1 65 67
67 1 61 68
68 1 68 69
69 1 69 70
70 1 70 71
71 1 71 72
72 1 68 73
73 1 69 74
74 1 74 75
75 1 71 76
76 1 76 77
77 1 76 78
78 1 72 79
79 1 79 80
80 1 80 81
81 1 81 82
82 1 82 83
83 1 79 84
84 1 80 85
85 1 85 86
86 1 82 87
87 1 87 88
88 1 87 89
89 1 83 90
90 1 90 91
91 1 91 92
92 1 92 93
93 1 93 94
94 1 90 95
95 1 91 96
96 1 96 97
97 1 93 98
98 1 98 99
99 1 98 100
100 1 94 101
101 1 101 102
102 1 102 103
103 1 103 104
104 1 104 105
105 1 101 106
106 1 102 107
107 1 107 108
108 1 104 109
109 1 109 110
110 1 109 111
111 1 105 112
112 1 112 113
113 1 113 114
114 1 114 115
115 1 115 116
116 1 112 117
117 1 113 118
118 1 118 119
119 1 115 120
120 1 120 121
121 1 120 122
122 1 116 123
123 1 123 124
124 1 124 125
125 1 125 126
126 1 126 127
127 1 123 128
128 1 124 129
129 1 129 130
130 1 126 131
131 1 131 132
132 1 131 133
133 1 127 134
134 1 134 135
135 1 135 136
136 1 136 137
137 1 137 138
138 1 134 139
139 1 135 140
140 1 140 141
141 1 137 142
142 1 142 143
143 1 142 144
144 1 138 145
